Written by BaderKit
   1.00000000000000
     3.537074    0.051133    5.740763
     1.665193    3.120999    5.740763
     0.083858    0.051133    6.742420
Ca   N    
     2     1
Direct
  0.731317  0.731317  0.731317
  0.268683  0.268683  0.268683
  0.000000  0.000000  0.000000
 
    60    60    60
 0.12200000000E+00 0.17767000000E+00 0.36030000000E+00 0.58904000000E+00 0.73619000000E+00
 0.80091000000E+00 0.81908000000E+00 0.80831000000E+00 0.77331000000E+00 0.72128000000E+00
 0.65385000000E+00 0.56064000000E+00 0.44265000000E+00 0.32075000000E+00 0.21651000000E+00
 0.14156000000E+00 0.95785000000E-01 0.70378000000E-01 0.56626000000E-01 0.49970000000E-01
 0.49040000000E-01 0.53793000000E-01 0.64572000000E-01 0.82434000000E-01 0.11054000000E+00
 0.15494000000E+00 0.22120000000E+00 0.30622000000E+00 0.39346000000E+00 0.45909000000E+00
 0.48348000000E+00 0.45909000000E+00 0.39346000000E+00 0.30622000000E+00 0.22120000000E+00
 0.15494000000E+00 0.11054000000E+00 0.82434000000E-01 0.64572000000E-01 0.53793000000E-01
 0.49040000000E-01 0.49970000000E-01 0.56626000000E-01 0.70378000000E-01 0.95785000000E-01
 0.14156000000E+00 0.21651000000E+00 0.32075000000E+00 0.44265000000E+00 0.56064000000E+00
 0.65385000000E+00 0.72128000000E+00 0.77331000000E+00 0.80831000000E+00 0.81908000000E+00
 0.80091000000E+00 0.73619000000E+00 0.58904000000E+00 0.36030000000E+00 0.17767000000E+00
 0.17767000000E+00 0.34221000000E+00 0.56750000000E+00 0.72326000000E+00 0.79518000000E+00
 0.81789000000E+00 0.81106000000E+00 0.78026000000E+00 0.73298000000E+00 0.67399000000E+00
 0.59482000000E+00 0.49164000000E+00 0.37763000000E+00 0.27044000000E+00 0.18423000000E+00
 0.12623000000E+00 0.92108000000E-01 0.73010000000E-01 0.63206000000E-01 0.60736000000E-01
 0.65373000000E-01 0.77240000000E-01 0.97110000000E-01 0.12819000000E+00 0.17689000000E+00
 0.24788000000E+00 0.33428000000E+00 0.41577000000E+00 0.47019000000E+00 0.48227000000E+00
 0.44569000000E+00 0.36985000000E+00 0.27899000000E+00 0.19705000000E+00 0.13586000000E+00
 0.95385000000E-01 0.69905000000E-01 0.53933000000E-01 0.44376000000E-01 0.39904000000E-01
 0.39945000000E-01 0.44329000000E-01 0.53832000000E-01 0.71645000000E-01 0.10502000000E+00
 0.16449000000E+00 0.25771000000E+00 0.38100000000E+00 0.51347000000E+00 0.62488000000E+00
 0.70468000000E+00 0.76338000000E+00 0.80381000000E+00 0.81983000000E+00 0.80794000000E+00
 0.75456000000E+00 0.62719000000E+00 0.41237000000E+00 0.21428000000E+00 0.13812000000E+00
 0.36030000000E+00 0.56750000000E+00 0.71858000000E+00 0.79196000000E+00 0.81688000000E+00
 0.81258000000E+00 0.78487000000E+00 0.74104000000E+00 0.68787000000E+00 0.61896000000E+00
 0.52842000000E+00 0.42436000000E+00 0.32009000000E+00 0.22821000000E+00 0.16033000000E+00
 0.11765000000E+00 0.92705000000E-01 0.79146000000E-01 0.74619000000E-01 0.78859000000E-01
 0.91859000000E-01 0.11408000000E+00 0.14858000000E+00 0.20168000000E+00 0.27638000000E+00
 0.36185000000E+00 0.43578000000E+00 0.47877000000E+00 0.47876000000E+00 0.43046000000E+00
 0.34598000000E+00 0.25359000000E+00 0.17569000000E+00 0.11939000000E+00 0.82440000000E-01
 0.59413000000E-01 0.45366000000E-01 0.37227000000E-01 0.33420000000E-01 0.33177000000E-01
 0.36166000000E-01 0.42692000000E-01 0.54730000000E-01 0.77555000000E-01 0.12075000000E+00
 0.19609000000E+00 0.31023000000E+00 0.45132000000E+00 0.58360000000E+00 0.68103000000E+00
 0.74948000000E+00 0.79681000000E+00 0.81936000000E+00 0.81489000000E+00 0.77485000000E+00
 0.67371000000E+00 0.49011000000E+00 0.29000000000E+00 0.19051000000E+00 0.21428000000E+00
 0.58904000000E+00 0.72326000000E+00 0.79196000000E+00 0.81650000000E+00 0.81325000000E+00
 0.78750000000E+00 0.74617000000E+00 0.69705000000E+00 0.63550000000E+00 0.55493000000E+00
 0.46037000000E+00 0.36183000000E+00 0.26902000000E+00 0.19472000000E+00 0.14487000000E+00
 0.11441000000E+00 0.96977000000E-01 0.90167000000E-01 0.93941000000E-01 0.10834000000E+00
 0.13342000000E+00 0.17171000000E+00 0.22878000000E+00 0.30541000000E+00 0.38753000000E+00
 0.45278000000E+00 0.48479000000E+00 0.47333000000E+00 0.41404000000E+00 0.32276000000E+00
 0.23059000000E+00 0.15705000000E+00 0.10520000000E+00 0.71479000000E-01 0.50869000000E-01
 0.38837000000E-01 0.32280000000E-01 0.29436000000E-01 0.29403000000E-01 0.31731000000E-01
 0.36386000000E-01 0.44440000000E-01 0.59408000000E-01 0.88652000000E-01 0.14390000000E+00
 0.23869000000E+00 0.37604000000E+00 0.52659000000E+00 0.64716000000E+00 0.73005000000E+00
 0.78636000000E+00 0.81681000000E+00 0.82052000000E+00 0.79394000000E+00 0.72007000000E+00
 0.57834000000E+00 0.39946000000E+00 0.28476000000E+00 0.29000000000E+00 0.41237000000E+00
 0.73619000000E+00 0.79518000000E+00 0.81688000000E+00 0.81325000000E+00 0.78835000000E+00
 0.74867000000E+00 0.70234000000E+00 0.64595000000E+00 0.57293000000E+00 0.48653000000E+00
 0.39453000000E+00 0.30388000000E+00 0.22658000000E+00 0.17171000000E+00 0.13676000000E+00
 0.11588000000E+00 0.10690000000E+00 0.11034000000E+00 0.12650000000E+00 0.15494000000E+00
 0.19708000000E+00 0.25700000000E+00 0.33329000000E+00 0.41014000000E+00 0.46648000000E+00
 0.48846000000E+00 0.46642000000E+00 0.39718000000E+00 0.30089000000E+00 0.21017000000E+00
 0.14089000000E+00 0.93016000000E-01 0.62336000000E-01 0.44174000000E-01 0.34221000000E-01
 0.29361000000E-01 0.27735000000E-01 0.28341000000E-01 0.30610000000E-01 0.34241000000E-01
 0.39672000000E-01 0.49161000000E-01 0.67952000000E-01 0.10545000000E+00 0.17625000000E+00
 0.29542000000E+00 0.45294000000E+00 0.59913000000E+00 0.70267000000E+00 0.77121000000E+00
 0.81117000000E+00 0.82377000000E+00 0.80970000000E+00 0.76019000000E+00 0.66067000000E+00
 0.52184000000E+00 0.41213000000E+00 0.39946000000E+00 0.49011000000E+00 0.62719000000E+00
 0.80091000000E+00 0.81789000000E+00 0.81258000000E+00 0.78750000000E+00 0.74867000000E+00
 0.70407000000E+00 0.65105000000E+00 0.58345000000E+00 0.50369000000E+00 0.41807000000E+00
 0.33137000000E+00 0.25397000000E+00 0.19651000000E+00 0.15861000000E+00 0.13513000000E+00
 0.12439000000E+00 0.12775000000E+00 0.14595000000E+00 0.17794000000E+00 0.22344000000E+00
 0.28454000000E+00 0.35829000000E+00 0.42894000000E+00 0.47708000000E+00 0.49019000000E+00
 0.45854000000E+00 0.38056000000E+00 0.28084000000E+00 0.19230000000E+00 0.12696000000E+00
 0.82632000000E-01 0.54880000000E-01 0.39184000000E-01 0.31336000000E-01 0.28288000000E-01
 0.28188000000E-01 0.29923000000E-01 0.32725000000E-01 0.35998000000E-01 0.39697000000E-01
 0.45287000000E-01 0.56585000000E-01 0.80486000000E-01 0.12899000000E+00 0.22096000000E+00
 0.36755000000E+00 0.53368000000E+00 0.66396000000E+00 0.74959000000E+00 0.80126000000E+00
 0.82374000000E+00 0.82102000000E+00 0.79128000000E+00 0.72692000000E+00 0.63159000000E+00
 0.54463000000E+00 0.52184000000E+00 0.57834000000E+00 0.67371000000E+00 0.75456000000E+00
 0.81908000000E+00 0.81106000000E+00 0.78487000000E+00 0.74617000000E+00 0.70234000000E+00
 0.65105000000E+00 0.58692000000E+00 0.51224000000E+00 0.43237000000E+00 0.35054000000E+00
 0.27536000000E+00 0.21776000000E+00 0.17877000000E+00 0.15389000000E+00 0.14207000000E+00
 0.14562000000E+00 0.16588000000E+00 0.20104000000E+00 0.24886000000E+00 0.30940000000E+00
 0.37916000000E+00 0.44374000000E+00 0.48507000000E+00 0.49054000000E+00 0.45016000000E+00
 0.36473000000E+00 0.26289000000E+00 0.17679000000E+00 0.11498000000E+00 0.73880000000E-01
 0.48972000000E-01 0.35719000000E-01 0.29994000000E-01 0.28953000000E-01 0.30852000000E-01
 0.34419000000E-01 0.38508000000E-01 0.42076000000E-01 0.44602000000E-01 0.47075000000E-01
 0.52640000000E-01 0.66535000000E-01 0.97468000000E-01 0.16174000000E+00 0.28169000000E+00
 0.45131000000E+00 0.60993000000E+00 0.71901000000E+00 0.78564000000E+00 0.81947000000E+00
 0.82743000000E+00 0.81310000000E+00 0.77479000000E+00 0.71498000000E+00 0.65514000000E+00
 0.63159000000E+00 0.66067000000E+00 0.72007000000E+00 0.77485000000E+00 0.80794000000E+00
 0.80831000000E+00 0.78026000000E+00 0.74104000000E+00 0.69705000000E+00 0.64595000000E+00
 0.58345000000E+00 0.51224000000E+00 0.43718000000E+00 0.36045000000E+00 0.28915000000E+00
 0.23366000000E+00 0.19561000000E+00 0.17086000000E+00 0.15885000000E+00 0.16294000000E+00
 0.18502000000E+00 0.22248000000E+00 0.27123000000E+00 0.32993000000E+00 0.39536000000E+00
 0.45490000000E+00 0.49108000000E+00 0.49013000000E+00 0.44177000000E+00 0.35001000000E+00
 0.24709000000E+00 0.16346000000E+00 0.10475000000E+00 0.66613000000E-01 0.44450000000E-01
 0.33582000000E-01 0.30043000000E-01 0.31357000000E-01 0.35999000000E-01 0.42471000000E-01
 0.48972000000E-01 0.53698000000E-01 0.55488000000E-01 0.54995000000E-01 0.55345000000E-01
 0.61255000000E-01 0.79041000000E-01 0.12043000000E+00 0.20780000000E+00 0.35949000000E+00
 0.53775000000E+00 0.67611000000E+00 0.76243000000E+00 0.80981000000E+00 0.82865000000E+00
 0.82657000000E+00 0.80656000000E+00 0.77174000000E+00 0.73417000000E+00 0.71498000000E+00
 0.72692000000E+00 0.76019000000E+00 0.79394000000E+00 0.81489000000E+00 0.81983000000E+00
 0.77331000000E+00 0.73298000000E+00 0.68787000000E+00 0.63550000000E+00 0.57293000000E+00
 0.50369000000E+00 0.43237000000E+00 0.36045000000E+00 0.29394000000E+00 0.24229000000E+00
 0.20705000000E+00 0.18409000000E+00 0.17306000000E+00 0.17816000000E+00 0.20181000000E+00
 0.24060000000E+00 0.28903000000E+00 0.34528000000E+00 0.40708000000E+00 0.46311000000E+00
 0.49573000000E+00 0.48948000000E+00 0.43378000000E+00 0.33664000000E+00 0.23337000000E+00
 0.15207000000E+00 0.96070000000E-01 0.60681000000E-01 0.41129000000E-01 0.32583000000E-01
 0.31376000000E-01 0.35593000000E-01 0.44078000000E-01 0.55050000000E-01 0.65683000000E-01
 0.72908000000E-01 0.74562000000E-01 0.70872000000E-01 0.65427000000E-01 0.63619000000E-01
 0.70839000000E-01 0.94884000000E-01 0.15269000000E+00 0.27147000000E+00 0.44913000000E+00
 0.61707000000E+00 0.72917000000E+00 0.79329000000E+00 0.82419000000E+00 0.83276000000E+00
 0.82573000000E+00 0.80748000000E+00 0.78549000000E+00 0.77174000000E+00 0.77479000000E+00
 0.79128000000E+00 0.80970000000E+00 0.82052000000E+00 0.81936000000E+00 0.80381000000E+00
 0.72128000000E+00 0.67399000000E+00 0.61896000000E+00 0.55493000000E+00 0.48653000000E+00
 0.41807000000E+00 0.35054000000E+00 0.28915000000E+00 0.24229000000E+00 0.21113000000E+00
 0.19143000000E+00 0.18271000000E+00 0.18956000000E+00 0.21478000000E+00 0.25434000000E+00
 0.30177000000E+00 0.35559000000E+00 0.41491000000E+00 0.46913000000E+00 0.49958000000E+00
 0.48894000000E+00 0.42652000000E+00 0.32475000000E+00 0.22160000000E+00 0.14243000000E+00
 0.88800000000E-01 0.55927000000E-01 0.38817000000E-01 0.32544000000E-01 0.33920000000E-01
 0.41806000000E-01 0.55623000000E-01 0.73300000000E-01 0.90554000000E-01 0.10237000000E+00
 0.10501000000E+00 0.97920000000E-01 0.85275000000E-01 0.74317000000E-01 0.71292000000E-01
 0.81679000000E-01 0.11634000000E+00 0.19922000000E+00 0.35331000000E+00 0.53958000000E+00
 0.68267000000E+00 0.76811000000E+00 0.81312000000E+00 0.83227000000E+00 0.83525000000E+00
 0.82813000000E+00 0.81651000000E+00 0.80748000000E+00 0.80656000000E+00 0.81310000000E+00
 0.82102000000E+00 0.82377000000E+00 0.81681000000E+00 0.79681000000E+00 0.76338000000E+00
 0.65385000000E+00 0.59482000000E+00 0.52842000000E+00 0.46037000000E+00 0.39453000000E+00
 0.33137000000E+00 0.27536000000E+00 0.23366000000E+00 0.20705000000E+00 0.19143000000E+00
 0.18615000000E+00 0.19567000000E+00 0.22290000000E+00 0.26335000000E+00 0.30992000000E+00
 0.36173000000E+00 0.41963000000E+00 0.47356000000E+00 0.50304000000E+00 0.48869000000E+00
 0.42017000000E+00 0.31442000000E+00 0.21164000000E+00 0.13438000000E+00 0.82796000000E-01
 0.52194000000E-01 0.37330000000E-01 0.33303000000E-01 0.37600000000E-01 0.50116000000E-01
 0.71106000000E-01 0.98241000000E-01 0.12534000000E+00 0.14468000000E+00 0.15030000000E+00
 0.14026000000E+00 0.11887000000E+00 0.95911000000E-01 0.80644000000E-01 0.78373000000E-01
 0.95256000000E-01 0.14751000000E+00 0.26443000000E+00 0.44641000000E+00 0.61945000000E+00
 0.73201000000E+00 0.79420000000E+00 0.82498000000E+00 0.83695000000E+00 0.83797000000E+00
 0.83343000000E+00 0.82813000000E+00 0.82573000000E+00 0.82657000000E+00 0.82743000000E+00
 0.82374000000E+00 0.81117000000E+00 0.78636000000E+00 0.74948000000E+00 0.70468000000E+00
 0.56064000000E+00 0.49164000000E+00 0.42436000000E+00 0.36183000000E+00 0.30388000000E+00
 0.25397000000E+00 0.21776000000E+00 0.19561000000E+00 0.18409000000E+00 0.18271000000E+00
 0.19567000000E+00 0.22565000000E+00 0.26776000000E+00 0.31434000000E+00 0.36492000000E+00
 0.42210000000E+00 0.47673000000E+00 0.50622000000E+00 0.48878000000E+00 0.41482000000E+00
 0.30571000000E+00 0.20337000000E+00 0.12774000000E+00 0.77923000000E-01 0.49325000000E-01
 0.36493000000E-01 0.34700000000E-01 0.42309000000E-01 0.60528000000E-01 0.90730000000E-01
 0.13034000000E+00 0.17082000000E+00 0.20105000000E+00 0.21244000000E+00 0.20128000000E+00
 0.17081000000E+00 0.13267000000E+00 0.10110000000E+00 0.84325000000E-01 0.85965000000E-01
 0.11463000000E+00 0.19368000000E+00 0.34801000000E+00 0.53782000000E+00 0.68214000000E+00
 0.76592000000E+00 0.81018000000E+00 0.83144000000E+00 0.83949000000E+00 0.84030000000E+00
 0.83797000000E+00 0.83525000000E+00 0.83276000000E+00 0.82865000000E+00 0.81947000000E+00
 0.80126000000E+00 0.77121000000E+00 0.73005000000E+00 0.68103000000E+00 0.62488000000E+00
 0.44265000000E+00 0.37762000000E+00 0.32009000000E+00 0.26902000000E+00 0.22658000000E+00
 0.19651000000E+00 0.17877000000E+00 0.17086000000E+00 0.17306000000E+00 0.18956000000E+00
 0.22290000000E+00 0.26776000000E+00 0.31572000000E+00 0.36620000000E+00 0.42315000000E+00
 0.47879000000E+00 0.50895000000E+00 0.48911000000E+00 0.41052000000E+00 0.29866000000E+00
 0.19672000000E+00 0.12240000000E+00 0.74052000000E-01 0.47172000000E-01 0.36148000000E-01
 0.36565000000E-01 0.47864000000E-01 0.72848000000E-01 0.11424000000E+00 0.16910000000E+00
 0.22594000000E+00 0.26987000000E+00 0.28986000000E+00 0.28077000000E+00 0.24366000000E+00
 0.18928000000E+00 0.13664000000E+00 0.10084000000E+00 0.86533000000E-01 0.96475000000E-01
 0.14430000000E+00 0.25890000000E+00 0.44156000000E+00 0.61552000000E+00 0.72651000000E+00
 0.78701000000E+00 0.81850000000E+00 0.83356000000E+00 0.83917000000E+00 0.83949000000E+00
 0.83695000000E+00 0.83227000000E+00 0.82418000000E+00 0.80981000000E+00 0.78564000000E+00
 0.74958000000E+00 0.70267000000E+00 0.64716000000E+00 0.58360000000E+00 0.51347000000E+00
 0.32075000000E+00 0.27044000000E+00 0.22821000000E+00 0.19472000000E+00 0.17171000000E+00
 0.15861000000E+00 0.15389000000E+00 0.15885000000E+00 0.17816000000E+00 0.21478000000E+00
 0.26335000000E+00 0.31434000000E+00 0.36620000000E+00 0.42342000000E+00 0.47981000000E+00
 0.51084000000E+00 0.48951000000E+00 0.40733000000E+00 0.29331000000E+00 0.19161000000E+00
 0.11825000000E+00 0.71065000000E-01 0.45602000000E-01 0.36148000000E-01 0.38718000000E-01
 0.53993000000E-01 0.86626000000E-01 0.14081000000E+00 0.21282000000E+00 0.28752000000E+00
 0.34615000000E+00 0.37630000000E+00 0.37268000000E+00 0.33429000000E+00 0.26752000000E+00
 0.19173000000E+00 0.13101000000E+00 0.96920000000E-01 0.89643000000E-01 0.11349000000E+00
 0.18942000000E+00 0.34200000000E+00 0.53111000000E+00 0.67355000000E+00 0.75458000000E+00
 0.79772000000E+00 0.82018000000E+00 0.83061000000E+00 0.83356000000E+00 0.83144000000E+00
 0.82498000000E+00 0.81312000000E+00 0.79329000000E+00 0.76243000000E+00 0.71901000000E+00
 0.66396000000E+00 0.59913000000E+00 0.52659000000E+00 0.45132000000E+00 0.38100000000E+00
 0.21651000000E+00 0.18423000000E+00 0.16033000000E+00 0.14487000000E+00 0.13676000000E+00
 0.13513000000E+00 0.14207000000E+00 0.16294000000E+00 0.20181000000E+00 0.25434000000E+00
 0.30992000000E+00 0.36492000000E+00 0.42315000000E+00 0.47981000000E+00 0.51152000000E+00
 0.48978000000E+00 0.40536000000E+00 0.28970000000E+00 0.18799000000E+00 0.11521000000E+00
 0.68861000000E-01 0.44497000000E-01 0.36359000000E-01 0.40961000000E-01 0.60332000000E-01
 0.10116000000E+00 0.16906000000E+00 0.25881000000E+00 0.35084000000E+00 0.42288000000E+00
 0.46267000000E+00 0.46651000000E+00 0.43283000000E+00 0.36242000000E+00 0.26811000000E+00
 0.17874000000E+00 0.11882000000E+00 0.92409000000E-01 0.96800000000E-01 0.14153000000E+00
 0.25355000000E+00 0.43355000000E+00 0.60443000000E+00 0.71157000000E+00 0.76891000000E+00
 0.79925000000E+00 0.81456000000E+00 0.82018000000E+00 0.81850000000E+00 0.81018000000E+00
 0.79420000000E+00 0.76811000000E+00 0.72917000000E+00 0.67611000000E+00 0.60993000000E+00
 0.53368000000E+00 0.45294000000E+00 0.37604000000E+00 0.31023000000E+00 0.25771000000E+00
 0.14156000000E+00 0.12623000000E+00 0.11765000000E+00 0.11441000000E+00 0.11588000000E+00
 0.12439000000E+00 0.14562000000E+00 0.18502000000E+00 0.24060000000E+00 0.30177000000E+00
 0.36173000000E+00 0.42210000000E+00 0.47879000000E+00 0.51084000000E+00 0.48978000000E+00
 0.40469000000E+00 0.28788000000E+00 0.18583000000E+00 0.11322000000E+00 0.67352000000E-01
 0.43760000000E-01 0.36664000000E-01 0.43087000000E-01 0.66443000000E-01 0.11553000000E+00
 0.19722000000E+00 0.30394000000E+00 0.41099000000E+00 0.49351000000E+00 0.54079000000E+00
 0.55202000000E+00 0.52678000000E+00 0.46220000000E+00 0.36096000000E+00 0.24626000000E+00
 0.15507000000E+00 0.10475000000E+00 0.90719000000E-01 0.11166000000E+00 0.18540000000E+00
 0.33456000000E+00 0.51865000000E+00 0.65560000000E+00 0.73159000000E+00 0.77108000000E+00
 0.79122000000E+00 0.79925000000E+00 0.79772000000E+00 0.78701000000E+00 0.76592000000E+00
 0.73201000000E+00 0.68267000000E+00 0.61707000000E+00 0.53775000000E+00 0.45131000000E+00
 0.36755000000E+00 0.29541000000E+00 0.23869000000E+00 0.19609000000E+00 0.16449000000E+00
 0.95785000000E-01 0.92108000000E-01 0.92705000000E-01 0.96977000000E-01 0.10690000000E+00
 0.12775000000E+00 0.16588000000E+00 0.22248000000E+00 0.28903000000E+00 0.35559000000E+00
 0.41963000000E+00 0.47673000000E+00 0.50895000000E+00 0.48951000000E+00 0.40536000000E+00
 0.28788000000E+00 0.18511000000E+00 0.11224000000E+00 0.66475000000E-01 0.43315000000E-01
 0.36962000000E-01 0.44897000000E-01 0.71853000000E-01 0.12872000000E+00 0.22338000000E+00
 0.34521000000E+00 0.46415000000E+00 0.55377000000E+00 0.60597000000E+00 0.62317000000E+00
 0.60705000000E+00 0.55398000000E+00 0.45868000000E+00 0.33062000000E+00 0.20805000000E+00
 0.12793000000E+00 0.93360000000E-01 0.95038000000E-01 0.13842000000E+00 0.24778000000E+00
 0.42146000000E+00 0.58408000000E+00 0.68403000000E+00 0.73558000000E+00 0.76105000000E+00
 0.77108000000E+00 0.76891000000E+00 0.75458000000E+00 0.72651000000E+00 0.68214000000E+00
 0.61945000000E+00 0.53958000000E+00 0.44913000000E+00 0.35949000000E+00 0.28169000000E+00
 0.22096000000E+00 0.17625000000E+00 0.14390000000E+00 0.12075000000E+00 0.10502000000E+00
 0.70378000000E-01 0.73010000000E-01 0.79146000000E-01 0.90167000000E-01 0.11034000000E+00
 0.14595000000E+00 0.20104000000E+00 0.27123000000E+00 0.34528000000E+00 0.41491000000E+00
 0.47356000000E+00 0.50622000000E+00 0.48911000000E+00 0.40733000000E+00 0.28970000000E+00
 0.18583000000E+00 0.11224000000E+00 0.66188000000E-01 0.43106000000E-01 0.37174000000E-01
 0.46215000000E-01 0.76109000000E-01 0.13970000000E+00 0.24574000000E+00 0.38026000000E+00
 0.50807000000E+00 0.60206000000E+00 0.65711000000E+00 0.67860000000E+00 0.67035000000E+00
 0.62985000000E+00 0.54854000000E+00 0.42245000000E+00 0.27714000000E+00 0.16362000000E+00
 0.10421000000E+00 0.87961000000E-01 0.10853000000E+00 0.18110000000E+00 0.32452000000E+00
 0.49715000000E+00 0.62321000000E+00 0.69120000000E+00 0.72369000000E+00 0.73558000000E+00
 0.73159000000E+00 0.71157000000E+00 0.67355000000E+00 0.61552000000E+00 0.53782000000E+00
 0.44641000000E+00 0.35331000000E+00 0.27146000000E+00 0.20779000000E+00 0.16174000000E+00
 0.12899000000E+00 0.10545000000E+00 0.88652000000E-01 0.77555000000E-01 0.71645000000E-01
 0.56626000000E-01 0.63206000000E-01 0.74619000000E-01 0.93941000000E-01 0.12650000000E+00
 0.17794000000E+00 0.24886000000E+00 0.32993000000E+00 0.40708000000E+00 0.46913000000E+00
 0.50304000000E+00 0.48878000000E+00 0.41052000000E+00 0.29331000000E+00 0.18799000000E+00
 0.11322000000E+00 0.66475000000E-01 0.43106000000E-01 0.37251000000E-01 0.46910000000E-01
 0.78831000000E-01 0.14758000000E+00 0.26281000000E+00 0.40751000000E+00 0.54190000000E+00
 0.63862000000E+00 0.69533000000E+00 0.71980000000E+00 0.71765000000E+00 0.68805000000E+00
 0.62265000000E+00 0.50981000000E+00 0.35667000000E+00 0.21242000000E+00 0.12359000000E+00
 0.88189000000E-01 0.90814000000E-01 0.13457000000E+00 0.24030000000E+00 0.40106000000E+00
 0.54697000000E+00 0.63483000000E+00 0.67704000000E+00 0.69120000000E+00 0.68403000000E+00
 0.65560000000E+00 0.60443000000E+00 0.53111000000E+00 0.44156000000E+00 0.34801000000E+00
 0.26443000000E+00 0.19922000000E+00 0.15269000000E+00 0.12043000000E+00 0.97467000000E-01
 0.80485000000E-01 0.67952000000E-01 0.59408000000E-01 0.54730000000E-01 0.53832000000E-01
 0.49970000000E-01 0.60736000000E-01 0.78859000000E-01 0.10834000000E+00 0.15494000000E+00
 0.22344000000E+00 0.30940000000E+00 0.39536000000E+00 0.46311000000E+00 0.49958000000E+00
 0.48869000000E+00 0.41482000000E+00 0.29866000000E+00 0.19161000000E+00 0.11521000000E+00
 0.67352000000E-01 0.43315000000E-01 0.37174000000E-01 0.46910000000E-01 0.79768000000E-01
 0.15170000000E+00 0.27348000000E+00 0.42603000000E+00 0.56564000000E+00 0.66454000000E+00
 0.72253000000E+00 0.74924000000E+00 0.75165000000E+00 0.73054000000E+00 0.67921000000E+00
 0.58391000000E+00 0.43716000000E+00 0.27212000000E+00 0.15185000000E+00 0.94587000000E-01
 0.81481000000E-01 0.10398000000E+00 0.17535000000E+00 0.30742000000E+00 0.45751000000E+00
 0.56378000000E+00 0.61778000000E+00 0.63483000000E+00 0.62321000000E+00 0.58408000000E+00
 0.51865000000E+00 0.43355000000E+00 0.34200000000E+00 0.25890000000E+00 0.19368000000E+00
 0.14751000000E+00 0.11634000000E+00 0.94884000000E-01 0.79041000000E-01 0.66535000000E-01
 0.56585000000E-01 0.49161000000E-01 0.44440000000E-01 0.42692000000E-01 0.44329000000E-01
 0.49040000000E-01 0.65373000000E-01 0.91859000000E-01 0.13342000000E+00 0.19708000000E+00
 0.28454000000E+00 0.37916000000E+00 0.45490000000E+00 0.49573000000E+00 0.48894000000E+00
 0.42017000000E+00 0.30571000000E+00 0.19672000000E+00 0.11825000000E+00 0.68861000000E-01
 0.43760000000E-01 0.36962000000E-01 0.46215000000E-01 0.78831000000E-01 0.15170000000E+00
 0.27711000000E+00 0.43537000000E+00 0.57965000000E+00 0.68102000000E+00 0.74055000000E+00
 0.76925000000E+00 0.77517000000E+00 0.76039000000E+00 0.72011000000E+00 0.64149000000E+00
 0.50944000000E+00 0.33712000000E+00 0.18836000000E+00 0.10659000000E+00 0.78056000000E-01
 0.84615000000E-01 0.12928000000E+00 0.22721000000E+00 0.36324000000E+00 0.47899000000E+00
 0.54383000000E+00 0.56378000000E+00 0.54697000000E+00 0.49715000000E+00 0.42146000000E+00
 0.33456000000E+00 0.25355000000E+00 0.18942000000E+00 0.14430000000E+00 0.11463000000E+00
 0.95256000000E-01 0.81679000000E-01 0.70839000000E-01 0.61255000000E-01 0.52639000000E-01
 0.45287000000E-01 0.39672000000E-01 0.36386000000E-01 0.36166000000E-01 0.39945000000E-01
 0.53793000000E-01 0.77240000000E-01 0.11408000000E+00 0.17171000000E+00 0.25700000000E+00
 0.35829000000E+00 0.44374000000E+00 0.49108000000E+00 0.48948000000E+00 0.42652000000E+00
 0.31442000000E+00 0.20337000000E+00 0.12240000000E+00 0.71065000000E-01 0.44497000000E-01
 0.36664000000E-01 0.44897000000E-01 0.76109000000E-01 0.14758000000E+00 0.27348000000E+00
 0.43537000000E+00 0.58427000000E+00 0.68901000000E+00 0.75080000000E+00 0.78163000000E+00
 0.79046000000E+00 0.78042000000E+00 0.74834000000E+00 0.68333000000E+00 0.56805000000E+00
 0.40001000000E+00 0.23069000000E+00 0.12362000000E+00 0.79030000000E-01 0.72801000000E-01
 0.98110000000E-01 0.16547000000E+00 0.27559000000E+00 0.38726000000E+00 0.45754000000E+00
 0.47899000000E+00 0.45751000000E+00 0.40106000000E+00 0.32452000000E+00 0.24778000000E+00
 0.18540000000E+00 0.14153000000E+00 0.11349000000E+00 0.96475000000E-01 0.85965000000E-01
 0.78373000000E-01 0.71291000000E-01 0.63619000000E-01 0.55345000000E-01 0.47075000000E-01
 0.39697000000E-01 0.34241000000E-01 0.31731000000E-01 0.33177000000E-01 0.39904000000E-01
 0.64572000000E-01 0.97110000000E-01 0.14858000000E+00 0.22878000000E+00 0.33329000000E+00
 0.42894000000E+00 0.48507000000E+00 0.49013000000E+00 0.43378000000E+00 0.32475000000E+00
 0.21164000000E+00 0.12774000000E+00 0.74052000000E-01 0.45602000000E-01 0.36359000000E-01
 0.43087000000E-01 0.71853000000E-01 0.13970000000E+00 0.26281000000E+00 0.42603000000E+00
 0.57965000000E+00 0.68901000000E+00 0.75413000000E+00 0.78754000000E+00 0.79905000000E+00
 0.79268000000E+00 0.76659000000E+00 0.71182000000E+00 0.61158000000E+00 0.45430000000E+00
 0.27452000000E+00 0.14452000000E+00 0.83382000000E-01 0.66079000000E-01 0.77530000000E-01
 0.12131000000E+00 0.20307000000E+00 0.29913000000E+00 0.36680000000E+00 0.38726000000E+00
 0.36324000000E+00 0.30742000000E+00 0.24030000000E+00 0.18110000000E+00 0.13842000000E+00
 0.11166000000E+00 0.96800000000E-01 0.89643000000E-01 0.86533000000E-01 0.84325000000E-01
 0.80644000000E-01 0.74316000000E-01 0.65427000000E-01 0.54995000000E-01 0.44602000000E-01
 0.35998000000E-01 0.30610000000E-01 0.29403000000E-01 0.33420000000E-01 0.44376000000E-01
 0.82434000000E-01 0.12819000000E+00 0.20168000000E+00 0.30541000000E+00 0.41014000000E+00
 0.47708000000E+00 0.49054000000E+00 0.44177000000E+00 0.33664000000E+00 0.22160000000E+00
 0.13438000000E+00 0.77923000000E-01 0.47172000000E-01 0.36148000000E-01 0.40961000000E-01
 0.66443000000E-01 0.12872000000E+00 0.24574000000E+00 0.40751000000E+00 0.56564000000E+00
 0.68102000000E+00 0.75080000000E+00 0.78754000000E+00 0.80181000000E+00 0.79850000000E+00
 0.77680000000E+00 0.72936000000E+00 0.64095000000E+00 0.49609000000E+00 0.31466000000E+00
 0.16715000000E+00 0.90159000000E-01 0.62849000000E-01 0.64151000000E-01 0.91042000000E-01
 0.14826000000E+00 0.22366000000E+00 0.28195000000E+00 0.29913000000E+00 0.27559000000E+00
 0.22721000000E+00 0.17535000000E+00 0.13457000000E+00 0.10853000000E+00 0.95038000000E-01
 0.90719000000E-01 0.92409000000E-01 0.96920000000E-01 0.10084000000E+00 0.10110000000E+00
 0.95911000000E-01 0.85275000000E-01 0.70872000000E-01 0.55488000000E-01 0.42076000000E-01
 0.32725000000E-01 0.28341000000E-01 0.29436000000E-01 0.37227000000E-01 0.53933000000E-01
 0.11054000000E+00 0.17689000000E+00 0.27638000000E+00 0.38753000000E+00 0.46648000000E+00
 0.49019000000E+00 0.45016000000E+00 0.35001000000E+00 0.23337000000E+00 0.14243000000E+00
 0.82796000000E-01 0.49325000000E-01 0.36148000000E-01 0.38718000000E-01 0.60332000000E-01
 0.11553000000E+00 0.22338000000E+00 0.38026000000E+00 0.54190000000E+00 0.66454000000E+00
 0.74055000000E+00 0.78163000000E+00 0.79905000000E+00 0.79850000000E+00 0.78008000000E+00
 0.73770000000E+00 0.65774000000E+00 0.52392000000E+00 0.34646000000E+00 0.18847000000E+00
 0.98154000000E-01 0.61978000000E-01 0.55631000000E-01 0.70817000000E-01 0.10934000000E+00
 0.16480000000E+00 0.21075000000E+00 0.22366000000E+00 0.20307000000E+00 0.16547000000E+00
 0.12928000000E+00 0.10398000000E+00 0.90814000000E-01 0.87961000000E-01 0.93360000000E-01
 0.10475000000E+00 0.11882000000E+00 0.13101000000E+00 0.13664000000E+00 0.13267000000E+00
 0.11887000000E+00 0.97920000000E-01 0.74562000000E-01 0.53698000000E-01 0.38508000000E-01
 0.29923000000E-01 0.27735000000E-01 0.32280000000E-01 0.45366000000E-01 0.69905000000E-01
 0.15494000000E+00 0.24788000000E+00 0.36185000000E+00 0.45278000000E+00 0.48846000000E+00
 0.45854000000E+00 0.36473000000E+00 0.24709000000E+00 0.15207000000E+00 0.88800000000E-01
 0.52194000000E-01 0.36493000000E-01 0.36565000000E-01 0.53993000000E-01 0.10116000000E+00
 0.19722000000E+00 0.34521000000E+00 0.50807000000E+00 0.63862000000E+00 0.72253000000E+00
 0.76925000000E+00 0.79046000000E+00 0.79268000000E+00 0.77680000000E+00 0.73770000000E+00
 0.66319000000E+00 0.53772000000E+00 0.36667000000E+00 0.20511000000E+00 0.10579000000E+00
 0.62516000000E-01 0.50407000000E-01 0.57581000000E-01 0.82837000000E-01 0.12199000000E+00
 0.15595000000E+00 0.16480000000E+00 0.14826000000E+00 0.12131000000E+00 0.98110000000E-01
 0.84615000000E-01 0.81480000000E-01 0.88189000000E-01 0.10421000000E+00 0.12793000000E+00
 0.15507000000E+00 0.17874000000E+00 0.19173000000E+00 0.18928000000E+00 0.17081000000E+00
 0.14026000000E+00 0.10501000000E+00 0.72908000000E-01 0.48972000000E-01 0.34419000000E-01
 0.28188000000E-01 0.29361000000E-01 0.38837000000E-01 0.59413000000E-01 0.95385000000E-01
 0.22120000000E+00 0.33428000000E+00 0.43578000000E+00 0.48479000000E+00 0.46642000000E+00
 0.38056000000E+00 0.26289000000E+00 0.16346000000E+00 0.96070000000E-01 0.55927000000E-01
 0.37330000000E-01 0.34700000000E-01 0.47864000000E-01 0.86626000000E-01 0.16906000000E+00
 0.30394000000E+00 0.46415000000E+00 0.60206000000E+00 0.69533000000E+00 0.74924000000E+00
 0.77517000000E+00 0.78042000000E+00 0.76659000000E+00 0.72936000000E+00 0.65774000000E+00
 0.53772000000E+00 0.37358000000E+00 0.21424000000E+00 0.11132000000E+00 0.63564000000E-01
 0.47415000000E-01 0.49205000000E-01 0.65457000000E-01 0.92504000000E-01 0.11649000000E+00
 0.12199000000E+00 0.10934000000E+00 0.91042000000E-01 0.77530000000E-01 0.72800000000E-01
 0.78056000000E-01 0.94587000000E-01 0.12359000000E+00 0.16362000000E+00 0.20805000000E+00
 0.24626000000E+00 0.26811000000E+00 0.26752000000E+00 0.24366000000E+00 0.20128000000E+00
 0.15030000000E+00 0.10237000000E+00 0.65683000000E-01 0.42471000000E-01 0.30852000000E-01
 0.28288000000E-01 0.34221000000E-01 0.50869000000E-01 0.82440000000E-01 0.13586000000E+00
 0.30622000000E+00 0.41577000000E+00 0.47877000000E+00 0.47333000000E+00 0.39718000000E+00
 0.28084000000E+00 0.17679000000E+00 0.10475000000E+00 0.60681000000E-01 0.38817000000E-01