Written by BaderKit
   1.00000000000000
     3.537074    0.051133    5.740763
     1.665193    3.120999    5.740763
     0.083858    0.051133    6.742420
Ca   N    
     2     1
Direct
  0.731317  0.731317  0.731317
  0.268683  0.268683  0.268683
  0.000000  0.000000  0.000000
 
    60    60    60
 0.29019102617E+03 0.28501978600E+03 0.26499867288E+03 0.22586076799E+03 0.17480345330E+03
 0.12501267940E+03 0.84304678275E+02 0.55686689009E+02 0.37394790644E+02 0.25816889699E+02
 0.18275613252E+02 0.13265269217E+02 0.99251838942E+01 0.76726865468E+01 0.61085999881E+01
 0.49984569683E+01 0.42150941790E+01 0.00000000000E+00 0.00000000000E+00 0.00000000000E+00
 0.00000000000E+00 0.00000000000E+00 0.00000000000E+00 0.00000000000E+00 0.00000000000E+00
 0.00000000000E+00 0.00000000000E+00 0.00000000000E+00 0.00000000000E+00 0.00000000000E+00
 0.00000000000E+00 0.00000000000E+00 0.00000000000E+00 0.00000000000E+00 0.00000000000E+00
 0.00000000000E+00 0.00000000000E+00 0.00000000000E+00 0.00000000000E+00 0.00000000000E+00
 0.00000000000E+00 0.00000000000E+00 0.00000000000E+00 0.00000000000E+00 0.42150941790E+01
 0.49984569683E+01 0.61085999881E+01 0.76726865468E+01 0.99251838942E+01 0.13265269217E+02
 0.18275613252E+02 0.25816889699E+02 0.37394790644E+02 0.55686689009E+02 0.84304678275E+02
 0.12501267940E+03 0.17480345330E+03 0.22586076799E+03 0.26499867288E+03 0.28501978600E+03
 0.28501978295E+03 0.26656204370E+03 0.22980967546E+03 0.18012631107E+03 0.13012592429E+03
 0.88384430749E+02 0.58439731960E+02 0.39134518778E+02 0.26918723175E+02 0.18982174156E+02
 0.13710109648E+02 0.10192439845E+02 0.78233413407E+01 0.61831504482E+01 0.50202924079E+01
 0.41997368936E+01 0.36329611438E+01 0.00000000000E+00 0.00000000000E+00 0.00000000000E+00
 0.00000000000E+00 0.00000000000E+00 0.00000000000E+00 0.00000000000E+00 0.00000000000E+00
 0.00000000000E+00 0.00000000000E+00 0.00000000000E+00 0.00000000000E+00 0.00000000000E+00
 0.00000000000E+00 0.00000000000E+00 0.00000000000E+00 0.00000000000E+00 0.00000000000E+00
 0.00000000000E+00 0.00000000000E+00 0.00000000000E+00 0.00000000000E+00 0.00000000000E+00
 0.00000000000E+00 0.00000000000E+00 0.00000000000E+00 0.00000000000E+00 0.50093603827E+01
 0.60574167211E+01 0.75322888506E+01 0.96494094663E+01 0.12781971638E+02 0.17481683558E+02
 0.24546984125E+02 0.35338797297E+02 0.52311928138E+02 0.78994324708E+02 0.11773266553E+03
 0.16618592710E+03 0.21782661417E+03 0.25990482914E+03 0.28312546289E+03 0.28970436207E+03
 0.26499866637E+03 0.22980967379E+03 0.18192273911E+03 0.13276309097E+03 0.90952452227E+02
 0.60389942225E+02 0.40460321430E+02 0.27800370647E+02 0.19570277777E+02 0.14095262306E+02
 0.10434760889E+02 0.79695763230E+01 0.62663578315E+01 0.50598282271E+01 0.42076053795E+01
 0.36198598065E+01 0.32207312717E+01 0.00000000000E+00 0.00000000000E+00 0.00000000000E+00
 0.00000000000E+00 0.00000000000E+00 0.00000000000E+00 0.00000000000E+00 0.00000000000E+00
 0.00000000000E+00 0.00000000000E+00 0.00000000000E+00 0.00000000000E+00 0.00000000000E+00
 0.00000000000E+00 0.00000000000E+00 0.00000000000E+00 0.00000000000E+00 0.00000000000E+00
 0.00000000000E+00 0.00000000000E+00 0.00000000000E+00 0.00000000000E+00 0.00000000000E+00
 0.00000000000E+00 0.00000000000E+00 0.00000000000E+00 0.00000000000E+00 0.60491749320E+01
 0.74211010460E+01 0.93849742456E+01 0.12284230982E+02 0.16633923316E+02 0.23163720709E+02
 0.33070094934E+02 0.48518818570E+02 0.72805866620E+02 0.10871090668E+03 0.15472998957E+03
 0.20568407339E+03 0.25038052893E+03 0.27795491147E+03 0.28733497277E+03 0.28312545477E+03
 0.22586076376E+03 0.18012631068E+03 0.13276309099E+03 0.91829003753E+02 0.61401439470E+02
 0.41291533050E+02 0.28416587003E+02 0.20012591015E+02 0.14402312133E+02 0.10638528818E+02
 0.81000091389E+01 0.63473522147E+01 0.51060886500E+01 0.42279394936E+01 0.36219579535E+01
 0.32120861209E+01 0.29359702692E+01 0.00000000000E+00 0.00000000000E+00 0.00000000000E+00
 0.00000000000E+00 0.00000000000E+00 0.00000000000E+00 0.00000000000E+00 0.00000000000E+00
 0.00000000000E+00 0.00000000000E+00 0.00000000000E+00 0.00000000000E+00 0.00000000000E+00
 0.00000000000E+00 0.00000000000E+00 0.00000000000E+00 0.00000000000E+00 0.00000000000E+00
 0.00000000000E+00 0.00000000000E+00 0.00000000000E+00 0.00000000000E+00 0.00000000000E+00
 0.00000000000E+00 0.00000000000E+00 0.00000000000E+00 0.61091919710E+01 0.73633327751E+01
 0.91559915413E+01 0.11799180578E+02 0.15767690199E+02 0.21721327169E+02 0.30688469808E+02
 0.44509156269E+02 0.66121496334E+02 0.98490074449E+02 0.14112151765E+03 0.18982829185E+03
 0.23575442000E+03 0.26763078013E+03 0.28091095855E+03 0.27795490092E+03 0.25990481850E+03
 0.17480345286E+03 0.13012592435E+03 0.90952452227E+02 0.61401439470E+02 0.41574823698E+02
 0.28733704371E+02 0.20287403747E+02 0.14616173660E+02 0.10792650151E+02 0.82057895221E+01
 0.64181320189E+01 0.51512101104E+01 0.42530574928E+01 0.36321469041E+01 0.32126883173E+01
 0.29311975219E+01 0.27455642752E+01 0.26315896538E+01 0.00000000000E+00 0.00000000000E+00
 0.00000000000E+00 0.00000000000E+00 0.00000000000E+00 0.00000000000E+00 0.00000000000E+00
 0.00000000000E+00 0.00000000000E+00 0.00000000000E+00 0.00000000000E+00 0.00000000000E+00
 0.00000000000E+00 0.00000000000E+00 0.00000000000E+00 0.00000000000E+00 0.00000000000E+00
 0.00000000000E+00 0.00000000000E+00 0.00000000000E+00 0.00000000000E+00 0.00000000000E+00
 0.00000000000E+00 0.00000000000E+00 0.00000000000E+00 0.73892659675E+01 0.89915862608E+01
 0.11357522816E+02 0.14920026701E+02 0.20271871470E+02 0.28283259652E+02 0.40463022312E+02
 0.59306917531E+02 0.87702070332E+02 0.12617717185E+03 0.17119164019E+03 0.21624261573E+03
 0.25099875780E+03 0.26832277385E+03 0.26763077017E+03 0.25038051776E+03 0.21782660923E+03
 0.12501267945E+03 0.88384430749E+02 0.60389942225E+02 0.41291533050E+02 0.28733704371E+02
 0.20380637592E+02 0.14725971883E+02 0.10888697991E+02 0.82801981669E+01 0.64728326143E+01
 0.51895963246E+01 0.42775472720E+01 0.36454193467E+01 0.32181567653E+01 0.29318160335E+01
 0.27430240195E+01 0.26268745539E+01 0.25654626553E+01 0.00000000000E+00 0.00000000000E+00
 0.00000000000E+00 0.00000000000E+00 0.00000000000E+00 0.00000000000E+00 0.00000000000E+00
 0.00000000000E+00 0.00000000000E+00 0.00000000000E+00 0.00000000000E+00 0.00000000000E+00
 0.00000000000E+00 0.00000000000E+00 0.00000000000E+00 0.00000000000E+00 0.00000000000E+00
 0.00000000000E+00 0.00000000000E+00 0.00000000000E+00 0.00000000000E+00 0.00000000000E+00
 0.00000000000E+00 0.00000000000E+00 0.00000000000E+00 0.89264865318E+01 0.10993863300E+02
 0.14129690529E+02 0.18864752228E+02 0.25930232034E+02 0.36525792324E+02 0.52671211019E+02
 0.76959223799E+02 0.11067480817E+03 0.15106606979E+03 0.19312067240E+03 0.22844106196E+03
 0.24881452965E+03 0.25099875063E+03 0.23575441142E+03 0.20568406962E+03 0.16618592697E+03
 0.84304678275E+02 0.58439731960E+02 0.40460321430E+02 0.28416587003E+02 0.20287403747E+02
 0.14725971883E+02 0.10921327353E+02 0.83185996096E+01 0.65073253505E+01 0.52173222299E+01
 0.42976149915E+01 0.36582493743E+01 0.32253851564E+01 0.29352114568E+01 0.27436330928E+01
 0.26252978386E+01 0.25624532725E+01 0.25380000278E+01 0.00000000000E+00 0.00000000000E+00
 0.00000000000E+00 0.00000000000E+00 0.00000000000E+00 0.00000000000E+00 0.00000000000E+00
 0.00000000000E+00 0.00000000000E+00 0.00000000000E+00 0.00000000000E+00 0.00000000000E+00
 0.00000000000E+00 0.00000000000E+00 0.00000000000E+00 0.00000000000E+00 0.00000000000E+00
 0.00000000000E+00 0.00000000000E+00 0.00000000000E+00 0.00000000000E+00 0.00000000000E+00
 0.00000000000E+00 0.00000000000E+00 0.90015668624E+01 0.10746885560E+02 0.13437074307E+02
 0.17546816505E+02 0.23691585090E+02 0.32803637588E+02 0.46441963565E+02 0.66768164796E+02
 0.95370229144E+02 0.13072678206E+03 0.16832022322E+03 0.20184093988E+03 0.22350551949E+03
 0.22844105821E+03 0.21624261108E+03 0.18982829013E+03 0.15472998982E+03 0.11773266554E+03
 0.55686689009E+02 0.39134518778E+02 0.27800370647E+02 0.20012591015E+02 0.14616173660E+02
 0.10888697991E+02 0.83185996096E+01 0.65191049905E+01 0.52318269247E+01 0.43106799877E+01
 0.36681634233E+01 0.32321389095E+01 0.29394578329E+01 0.27457962544E+01 0.26255933197E+01
 0.25613180026E+01 0.25360905646E+01 0.00000000000E+00 0.00000000000E+00 0.00000000000E+00
 0.00000000000E+00 0.00000000000E+00 0.00000000000E+00 0.00000000000E+00 0.00000000000E+00
 0.00000000000E+00 0.00000000000E+00 0.00000000000E+00 0.00000000000E+00 0.00000000000E+00
 0.00000000000E+00 0.00000000000E+00 0.00000000000E+00 0.00000000000E+00 0.00000000000E+00
 0.00000000000E+00 0.00000000000E+00 0.00000000000E+00 0.00000000000E+00 0.00000000000E+00
 0.00000000000E+00 0.00000000000E+00 0.10659564140E+02 0.12883967407E+02 0.16362567522E+02
 0.21617930514E+02 0.29366507502E+02 0.40759445336E+02 0.57476814648E+02 0.81057268277E+02
 0.11109054760E+03 0.14372480296E+03 0.17379777284E+03 0.19492069918E+03 0.20184093878E+03
 0.19312067107E+03 0.17119164012E+03 0.14112151798E+03 0.10871090668E+03 0.78994324708E+02
 0.37394790644E+02 0.26918723175E+02 0.19570277777E+02 0.14402312133E+02 0.10792650151E+02
 0.82801981669E+01 0.65073253505E+01 0.52318269247E+01 0.43152065679E+01 0.36735328164E+01
 0.32368401757E+01 0.29431227122E+01 0.27482783330E+01 0.26267506154E+01 0.25612701902E+01
 0.25352463681E+01 0.00000000000E+00 0.00000000000E+00 0.00000000000E+00 0.00000000000E+00
 0.00000000000E+00 0.00000000000E+00 0.00000000000E+00 0.00000000000E+00 0.00000000000E+00
 0.00000000000E+00 0.00000000000E+00 0.00000000000E+00 0.00000000000E+00 0.00000000000E+00
 0.00000000000E+00 0.00000000000E+00 0.00000000000E+00 0.00000000000E+00 0.00000000000E+00
 0.00000000000E+00 0.00000000000E+00 0.00000000000E+00 0.00000000000E+00 0.00000000000E+00
 0.00000000000E+00 0.00000000000E+00 0.12513374971E+02 0.15354175463E+02 0.19750908755E+02
 0.26255884125E+02 0.35687307668E+02 0.49264520239E+02 0.68271555876E+02 0.92876166476E+02
 0.12059166140E+03 0.14661427469E+03 0.16590445111E+03 0.17379777296E+03 0.16832022350E+03
 0.15106607027E+03 0.12617717196E+03 0.98490074449E+02 0.72805866620E+02 0.52311928138E+02
 0.25816889699E+02 0.18982174156E+02 0.14095262306E+02 0.10638528818E+02 0.82057895221E+01
 0.64728326143E+01 0.52173222299E+01 0.43106799877E+01 0.36735328164E+01 0.32385178405E+01
 0.29452141124E+01 0.27501578279E+01 0.26279833787E+01 0.25616897059E+01 0.25350028362E+01
 0.00000000000E+00 0.00000000000E+00 0.00000000000E+00 0.00000000000E+00 0.00000000000E+00
 0.00000000000E+00 0.00000000000E+00 0.00000000000E+00 0.00000000000E+00 0.00000000000E+00
 0.00000000000E+00 0.00000000000E+00 0.00000000000E+00 0.00000000000E+00 0.00000000000E+00
 0.00000000000E+00 0.00000000000E+00 0.00000000000E+00 0.00000000000E+00 0.00000000000E+00
 0.00000000000E+00 0.00000000000E+00 0.00000000000E+00 0.00000000000E+00 0.00000000000E+00
 0.00000000000E+00 0.12369711277E+02 0.14561345138E+02 0.18125372630E+02 0.23494028134E+02
 0.31233118540E+02 0.42168187931E+02 0.57249514895E+02 0.76829199592E+02 0.99512385575E+02
 0.12162851694E+03 0.13858616002E+03 0.14661427491E+03 0.14372480332E+03 0.13072678224E+03
 0.11067480817E+03 0.87702070332E+02 0.66121496334E+02 0.48518818570E+02 0.35338797297E+02
 0.18275613252E+02 0.13710109648E+02 0.10434760889E+02 0.81000091389E+01 0.64181320189E+01
 0.51895963246E+01 0.42976149915E+01 0.36681634233E+01 0.32368401757E+01 0.29452141124E+01
 0.27508513892E+01 0.26287420889E+01 0.25621249347E+01 0.25350221057E+01 0.00000000000E+00
 0.00000000000E+00 0.00000000000E+00 0.00000000000E+00 0.00000000000E+00 0.00000000000E+00
 0.00000000000E+00 0.00000000000E+00 0.00000000000E+00 0.00000000000E+00 0.00000000000E+00
 0.00000000000E+00 0.00000000000E+00 0.00000000000E+00 0.00000000000E+00 0.00000000000E+00
 0.00000000000E+00 0.00000000000E+00 0.00000000000E+00 0.00000000000E+00 0.00000000000E+00
 0.00000000000E+00 0.00000000000E+00 0.00000000000E+00 0.00000000000E+00 0.00000000000E+00
 0.00000000000E+00 0.14021303159E+02 0.16770660353E+02 0.21091952860E+02 0.27371159352E+02
 0.36127382589E+02 0.47984374744E+02 0.63261060510E+02 0.81183642729E+02 0.99298178143E+02
 0.11392292310E+03 0.12162851695E+03 0.12059166141E+03 0.11109054760E+03 0.95370229144E+02
 0.76959223799E+02 0.59306917531E+02 0.44509156269E+02 0.33070094934E+02 0.24546984125E+02
 0.13265269217E+02 0.10192439845E+02 0.79695763230E+01 0.63473522147E+01 0.51512101104E+01
 0.42775472720E+01 0.36582493743E+01 0.32321389095E+01 0.29431227122E+01 0.27501578279E+01
 0.26287420889E+01 0.25623008023E+01 0.25350853429E+01 0.00000000000E+00 0.00000000000E+00
 0.00000000000E+00 0.00000000000E+00 0.00000000000E+00 0.00000000000E+00 0.00000000000E+00
 0.00000000000E+00 0.00000000000E+00 0.00000000000E+00 0.00000000000E+00 0.00000000000E+00
 0.00000000000E+00 0.00000000000E+00 0.00000000000E+00 0.00000000000E+00 0.00000000000E+00
 0.00000000000E+00 0.00000000000E+00 0.00000000000E+00 0.00000000000E+00 0.00000000000E+00
 0.00000000000E+00 0.00000000000E+00 0.00000000000E+00 0.00000000000E+00 0.00000000000E+00
 0.00000000000E+00 0.15711054924E+02 0.19054575085E+02 0.24061549480E+02 0.31031242664E+02
 0.40314923531E+02 0.52107274867E+02 0.65946702017E+02 0.80224485460E+02 0.92277468236E+02
 0.99298178143E+02 0.99512385575E+02 0.92876166476E+02 0.81057268277E+02 0.66768164796E+02
 0.52671211019E+02 0.40463022312E+02 0.30688469808E+02 0.23163720709E+02 0.17481683558E+02
 0.99251838942E+01 0.78233413407E+01 0.62663578315E+01 0.51060886500E+01 0.42530574928E+01
 0.36454193467E+01 0.32253851564E+01 0.29394578329E+01 0.27482783330E+01 0.26279833787E+01
 0.25621249347E+01 0.25350853429E+01 0.00000000000E+00 0.00000000000E+00 0.00000000000E+00
 0.00000000000E+00 0.00000000000E+00 0.00000000000E+00 0.00000000000E+00 0.00000000000E+00
 0.00000000000E+00 0.00000000000E+00 0.00000000000E+00 0.00000000000E+00 0.00000000000E+00
 0.00000000000E+00 0.00000000000E+00 0.00000000000E+00 0.00000000000E+00 0.00000000000E+00
 0.00000000000E+00 0.00000000000E+00 0.00000000000E+00 0.00000000000E+00 0.00000000000E+00
 0.00000000000E+00 0.00000000000E+00 0.00000000000E+00 0.00000000000E+00 0.00000000000E+00
 0.14965825242E+02 0.17382863969E+02 0.21262572734E+02 0.26755733284E+02 0.34011155731E+02
 0.43084216143E+02 0.53647157824E+02 0.64636378932E+02 0.74202027684E+02 0.80224485460E+02
 0.81183642729E+02 0.76829199592E+02 0.68271555876E+02 0.57476814648E+02 0.46441963565E+02
 0.36525792324E+02 0.28283259652E+02 0.21721327169E+02 0.16633923316E+02 0.12781971638E+02
 0.76726865468E+01 0.61831504482E+01 0.50598282271E+01 0.42279394936E+01 0.36321469041E+01
 0.32181567653E+01 0.29352114568E+01 0.27457962544E+01 0.26267506154E+01 0.25616897059E+01
 0.25350221057E+01 0.00000000000E+00 0.00000000000E+00 0.00000000000E+00 0.00000000000E+00
 0.00000000000E+00 0.00000000000E+00 0.00000000000E+00 0.00000000000E+00 0.00000000000E+00
 0.00000000000E+00 0.00000000000E+00 0.00000000000E+00 0.00000000000E+00 0.00000000000E+00
 0.00000000000E+00 0.00000000000E+00 0.00000000000E+00 0.00000000000E+00 0.00000000000E+00
 0.00000000000E+00 0.00000000000E+00 0.00000000000E+00 0.00000000000E+00 0.00000000000E+00
 0.00000000000E+00 0.00000000000E+00 0.00000000000E+00 0.00000000000E+00 0.00000000000E+00
 0.16073842423E+02 0.18935910210E+02 0.23186520614E+02 0.28837257653E+02 0.35826689392E+02
 0.43870768513E+02 0.52238554984E+02 0.59667453818E+02 0.64636378932E+02 0.65946702017E+02
 0.63261060510E+02 0.57249514895E+02 0.49264520239E+02 0.40759445336E+02 0.32803637588E+02
 0.25930232034E+02 0.20271871470E+02 0.15767690199E+02 0.12284230982E+02 0.96494094663E+01
 0.61085999881E+01 0.50202924079E+01 0.42076053795E+01 0.36219579535E+01 0.32126883173E+01
 0.29318160335E+01 0.27436330928E+01 0.26255933197E+01 0.25612701902E+01 0.25350028362E+01
 0.00000000000E+00 0.00000000000E+00 0.00000000000E+00 0.00000000000E+00 0.00000000000E+00
 0.00000000000E+00 0.00000000000E+00 0.00000000000E+00 0.00000000000E+00 0.00000000000E+00
 0.00000000000E+00 0.00000000000E+00 0.00000000000E+00 0.00000000000E+00 0.00000000000E+00
 0.00000000000E+00 0.00000000000E+00 0.00000000000E+00 0.00000000000E+00 0.00000000000E+00
 0.00000000000E+00 0.00000000000E+00 0.00000000000E+00 0.00000000000E+00 0.00000000000E+00
 0.00000000000E+00 0.00000000000E+00 0.00000000000E+00 0.00000000000E+00 0.15119679183E+02
 0.17046588285E+02 0.20228064977E+02 0.24587149820E+02 0.29980081476E+02 0.36129491895E+02
 0.42499634576E+02 0.48223642489E+02 0.52238554984E+02 0.53647157824E+02 0.52107274867E+02
 0.47984374744E+02 0.42168187931E+02 0.35687307668E+02 0.29366507502E+02 0.23691585090E+02
 0.18864752228E+02 0.14920026701E+02 0.11799180578E+02 0.93849742456E+01 0.75322888506E+01
 0.49984569683E+01 0.41997368936E+01 0.36198598065E+01 0.32120861209E+01 0.29311975219E+01
 0.27430240195E+01 0.26252978386E+01 0.25613180026E+01 0.25352463681E+01 0.00000000000E+00
 0.00000000000E+00 0.00000000000E+00 0.00000000000E+00 0.00000000000E+00 0.00000000000E+00
 0.00000000000E+00 0.00000000000E+00 0.00000000000E+00 0.00000000000E+00 0.00000000000E+00
 0.00000000000E+00 0.00000000000E+00 0.00000000000E+00 0.00000000000E+00 0.00000000000E+00
 0.00000000000E+00 0.00000000000E+00 0.00000000000E+00 0.00000000000E+00 0.00000000000E+00
 0.00000000000E+00 0.00000000000E+00 0.00000000000E+00 0.00000000000E+00 0.00000000000E+00
 0.00000000000E+00 0.00000000000E+00 0.00000000000E+00 0.00000000000E+00 0.15560391775E+02
 0.17802782190E+02 0.21096626276E+02 0.25246736356E+02 0.29973481035E+02 0.34854193586E+02
 0.39276214316E+02 0.42499634576E+02 0.43870768513E+02 0.43084216143E+02 0.40314923531E+02
 0.36127382589E+02 0.31233118540E+02 0.26255884125E+02 0.21617930514E+02 0.17546816505E+02
 0.14129690529E+02 0.11357522816E+02 0.91559915413E+01 0.74211010460E+01 0.60574167211E+01
 0.42150941790E+01 0.36329611438E+01 0.32207312717E+01 0.29359702692E+01 0.27455642752E+01
 0.26268745539E+01 0.25624532725E+01 0.25360905646E+01 0.00000000000E+00 0.00000000000E+00
 0.00000000000E+00 0.00000000000E+00 0.00000000000E+00 0.00000000000E+00 0.00000000000E+00
 0.00000000000E+00 0.00000000000E+00 0.00000000000E+00 0.00000000000E+00 0.00000000000E+00
 0.00000000000E+00 0.00000000000E+00 0.00000000000E+00 0.00000000000E+00 0.00000000000E+00
 0.00000000000E+00 0.00000000000E+00 0.00000000000E+00 0.00000000000E+00 0.00000000000E+00
 0.00000000000E+00 0.00000000000E+00 0.00000000000E+00 0.00000000000E+00 0.00000000000E+00
 0.00000000000E+00 0.00000000000E+00 0.00000000000E+00 0.14441217058E+02 0.15845350654E+02
 0.18239905357E+02 0.21397864363E+02 0.25039579551E+02 0.28810272633E+02 0.32256483098E+02
 0.34854193586E+02 0.36129491895E+02 0.35826689392E+02 0.34011155731E+02 0.31031242664E+02
 0.27371159352E+02 0.23494028134E+02 0.19750908755E+02 0.16362567522E+02 0.13437074307E+02
 0.10993863300E+02 0.89915862608E+01 0.73633327751E+01 0.60491749320E+01 0.50093603827E+01
 0.00000000000E+00 0.00000000000E+00 0.00000000000E+00 0.00000000000E+00 0.26315896538E+01
 0.25654626553E+01 0.25380000278E+01 0.00000000000E+00 0.00000000000E+00 0.00000000000E+00
 0.00000000000E+00 0.00000000000E+00 0.00000000000E+00 0.00000000000E+00 0.00000000000E+00
 0.00000000000E+00 0.00000000000E+00 0.00000000000E+00 0.00000000000E+00 0.00000000000E+00
 0.00000000000E+00 0.00000000000E+00 0.00000000000E+00 0.00000000000E+00 0.00000000000E+00
 0.00000000000E+00 0.00000000000E+00 0.00000000000E+00 0.00000000000E+00 0.00000000000E+00
 0.00000000000E+00 0.00000000000E+00 0.00000000000E+00 0.00000000000E+00 0.00000000000E+00
 0.00000000000E+00 0.00000000000E+00 0.00000000000E+00 0.14296650863E+02 0.15918994940E+02
 0.18264797309E+02 0.21057384830E+02 0.23986369897E+02 0.26698531287E+02 0.28810272633E+02
 0.29973481035E+02 0.29980081476E+02 0.28837257653E+02 0.26755733284E+02 0.24061549480E+02
 0.21091952860E+02 0.18125372630E+02 0.15354175463E+02 0.12883967407E+02 0.10746885560E+02
 0.89264865318E+01 0.73892659675E+01 0.61091919710E+01 0.00000000000E+00 0.00000000000E+00
 0.00000000000E+00 0.00000000000E+00 0.00000000000E+00 0.00000000000E+00 0.00000000000E+00
 0.00000000000E+00 0.00000000000E+00 0.00000000000E+00 0.00000000000E+00 0.00000000000E+00
 0.00000000000E+00 0.00000000000E+00 0.00000000000E+00 0.00000000000E+00 0.00000000000E+00
 0.00000000000E+00 0.00000000000E+00 0.00000000000E+00 0.00000000000E+00 0.00000000000E+00
 0.00000000000E+00 0.00000000000E+00 0.00000000000E+00 0.00000000000E+00 0.00000000000E+00
 0.00000000000E+00 0.00000000000E+00 0.00000000000E+00 0.00000000000E+00 0.00000000000E+00
 0.00000000000E+00 0.00000000000E+00 0.00000000000E+00 0.00000000000E+00 0.00000000000E+00
 0.00000000000E+00 0.00000000000E+00 0.13100002220E+02 0.14052712057E+02 0.15721908997E+02
 0.17832815009E+02 0.20106322197E+02 0.22254761748E+02 0.23986369897E+02 0.25039579551E+02
 0.25246736356E+02 0.24587149820E+02 0.23186520614E+02 0.21262572734E+02 0.19054575085E+02
 0.16770660353E+02 0.14561345138E+02 0.12513374971E+02 0.10659564140E+02 0.90015668624E+01
 0.00000000000E+00 0.00000000000E+00 0.00000000000E+00 0.00000000000E+00 0.00000000000E+00
 0.00000000000E+00 0.00000000000E+00 0.00000000000E+00 0.00000000000E+00 0.00000000000E+00
 0.00000000000E+00 0.00000000000E+00 0.00000000000E+00 0.00000000000E+00 0.00000000000E+00
 0.00000000000E+00 0.00000000000E+00 0.00000000000E+00 0.00000000000E+00 0.00000000000E+00
 0.00000000000E+00 0.00000000000E+00 0.00000000000E+00 0.00000000000E+00 0.00000000000E+00
 0.00000000000E+00 0.00000000000E+00 0.00000000000E+00 0.00000000000E+00 0.00000000000E+00
 0.00000000000E+00 0.00000000000E+00 0.00000000000E+00 0.00000000000E+00 0.00000000000E+00
 0.00000000000E+00 0.00000000000E+00 0.00000000000E+00 0.00000000000E+00 0.00000000000E+00
 0.00000000000E+00 0.00000000000E+00 0.12569292363E+02 0.13670195250E+02 0.15224575764E+02
 0.16974977831E+02 0.18678680723E+02 0.20106322197E+02 0.21057384830E+02 0.21397864363E+02
 0.21096626276E+02 0.20228064977E+02 0.18935910210E+02 0.17382863969E+02 0.15711054924E+02
 0.14021303159E+02 0.12369711277E+02 0.00000000000E+00 0.00000000000E+00 0.00000000000E+00
 0.00000000000E+00 0.00000000000E+00 0.00000000000E+00 0.00000000000E+00 0.00000000000E+00
 0.00000000000E+00 0.00000000000E+00 0.00000000000E+00 0.00000000000E+00 0.00000000000E+00
 0.00000000000E+00 0.00000000000E+00 0.00000000000E+00 0.00000000000E+00 0.00000000000E+00
 0.00000000000E+00 0.00000000000E+00 0.00000000000E+00 0.00000000000E+00 0.00000000000E+00
 0.00000000000E+00 0.00000000000E+00 0.00000000000E+00 0.00000000000E+00 0.00000000000E+00
 0.00000000000E+00 0.00000000000E+00 0.00000000000E+00 0.00000000000E+00 0.00000000000E+00
 0.00000000000E+00 0.00000000000E+00 0.00000000000E+00 0.00000000000E+00 0.00000000000E+00
 0.00000000000E+00 0.00000000000E+00 0.00000000000E+00 0.00000000000E+00 0.00000000000E+00
 0.00000000000E+00 0.11403452032E+02 0.12026241519E+02 0.13123565361E+02 0.14450606322E+02
 0.15795977250E+02 0.16974977831E+02 0.17832815009E+02 0.18264797309E+02 0.18239905357E+02
 0.17802782190E+02 0.17046588285E+02 0.16073842423E+02 0.14965825242E+02 0.00000000000E+00
 0.00000000000E+00 0.00000000000E+00 0.00000000000E+00 0.00000000000E+00 0.00000000000E+00
 0.00000000000E+00 0.00000000000E+00 0.00000000000E+00 0.00000000000E+00 0.00000000000E+00
 0.00000000000E+00 0.00000000000E+00 0.00000000000E+00 0.00000000000E+00 0.00000000000E+00
 0.00000000000E+00 0.00000000000E+00 0.00000000000E+00 0.00000000000E+00 0.00000000000E+00
 0.00000000000E+00 0.00000000000E+00 0.00000000000E+00 0.00000000000E+00 0.00000000000E+00
 0.00000000000E+00 0.00000000000E+00 0.00000000000E+00 0.00000000000E+00 0.00000000000E+00
 0.00000000000E+00 0.00000000000E+00 0.00000000000E+00 0.00000000000E+00 0.00000000000E+00
 0.00000000000E+00 0.00000000000E+00 0.00000000000E+00 0.00000000000E+00 0.00000000000E+00
 0.00000000000E+00 0.00000000000E+00 0.00000000000E+00 0.00000000000E+00 0.00000000000E+00
 0.10496642494E+02 0.10717300592E+02 0.11439737332E+02 0.12423267112E+02 0.13477429312E+02
 0.14450606322E+02 0.15224575764E+02 0.15721908997E+02 0.15918994940E+02 0.15845350654E+02
 0.15560391775E+02 0.15119679183E+02 0.00000000000E+00 0.00000000000E+00 0.00000000000E+00
 0.00000000000E+00 0.00000000000E+00 0.00000000000E+00 0.00000000000E+00 0.00000000000E+00
 0.00000000000E+00 0.00000000000E+00 0.00000000000E+00 0.00000000000E+00 0.00000000000E+00
 0.00000000000E+00 0.00000000000E+00 0.00000000000E+00 0.00000000000E+00 0.00000000000E+00
 0.00000000000E+00 0.00000000000E+00 0.00000000000E+00 0.00000000000E+00 0.00000000000E+00
 0.00000000000E+00 0.00000000000E+00 0.00000000000E+00 0.00000000000E+00 0.00000000000E+00
 0.00000000000E+00 0.00000000000E+00 0.00000000000E+00 0.00000000000E+00 0.00000000000E+00
 0.00000000000E+00 0.00000000000E+00 0.00000000000E+00 0.00000000000E+00 0.00000000000E+00
 0.00000000000E+00 0.00000000000E+00 0.00000000000E+00 0.00000000000E+00 0.00000000000E+00
 0.00000000000E+00 0.00000000000E+00 0.00000000000E+00 0.00000000000E+00 0.00000000000E+00
 0.96806522135E+01 0.10096369952E+02 0.10802237307E+02 0.11620244483E+02 0.12423267112E+02
 0.13123565361E+02 0.13670195250E+02 0.14052712057E+02 0.14296650863E+02 0.14441217058E+02
 0.00000000000E+00 0.00000000000E+00 0.00000000000E+00 0.00000000000E+00 0.00000000000E+00
 0.00000000000E+00 0.00000000000E+00 0.00000000000E+00 0.00000000000E+00 0.00000000000E+00
 0.00000000000E+00 0.00000000000E+00 0.00000000000E+00 0.00000000000E+00 0.00000000000E+00
 0.00000000000E+00 0.00000000000E+00 0.00000000000E+00 0.00000000000E+00 0.00000000000E+00
 0.00000000000E+00 0.00000000000E+00 0.00000000000E+00 0.00000000000E+00 0.00000000000E+00
 0.00000000000E+00 0.00000000000E+00 0.00000000000E+00 0.00000000000E+00 0.00000000000E+00
 0.00000000000E+00 0.00000000000E+00 0.00000000000E+00 0.00000000000E+00 0.00000000000E+00
 0.00000000000E+00 0.00000000000E+00 0.00000000000E+00 0.00000000000E+00 0.00000000000E+00
 0.00000000000E+00 0.00000000000E+00 0.00000000000E+00 0.00000000000E+00 0.00000000000E+00
 0.00000000000E+00 0.00000000000E+00 0.00000000000E+00 0.00000000000E+00 0.88646701814E+01
 0.90291456142E+01 0.95111600745E+01 0.10138691059E+02 0.10802237307E+02 0.11439737332E+02
 0.12026241519E+02 0.12569292363E+02 0.13100002220E+02 0.00000000000E+00 0.00000000000E+00
 0.00000000000E+00 0.00000000000E+00 0.00000000000E+00 0.00000000000E+00 0.00000000000E+00
 0.00000000000E+00 0.00000000000E+00 0.00000000000E+00 0.00000000000E+00 0.00000000000E+00
 0.00000000000E+00 0.00000000000E+00 0.00000000000E+00 0.00000000000E+00 0.00000000000E+00
 0.00000000000E+00 0.00000000000E+00 0.00000000000E+00 0.00000000000E+00 0.00000000000E+00
 0.00000000000E+00 0.00000000000E+00 0.00000000000E+00 0.00000000000E+00 0.00000000000E+00
 0.00000000000E+00 0.00000000000E+00 0.00000000000E+00 0.00000000000E+00 0.00000000000E+00
 0.00000000000E+00 0.00000000000E+00 0.00000000000E+00 0.00000000000E+00 0.00000000000E+00
 0.00000000000E+00 0.00000000000E+00 0.00000000000E+00 0.00000000000E+00 0.00000000000E+00
 0.00000000000E+00 0.00000000000E+00 0.00000000000E+00 0.00000000000E+00 0.00000000000E+00
 0.00000000000E+00 0.00000000000E+00 0.00000000000E+00 0.00000000000E+00 0.81869842969E+01
 0.84875925399E+01 0.89613815619E+01 0.95111600745E+01 0.10096369952E+02 0.10717300592E+02
 0.11403452032E+02 0.00000000000E+00 0.00000000000E+00 0.00000000000E+00 0.00000000000E+00
 0.00000000000E+00 0.00000000000E+00 0.00000000000E+00 0.00000000000E+00 0.00000000000E+00
 0.00000000000E+00 0.00000000000E+00 0.00000000000E+00 0.00000000000E+00 0.00000000000E+00
 0.00000000000E+00 0.00000000000E+00 0.00000000000E+00 0.00000000000E+00 0.00000000000E+00
 0.00000000000E+00 0.00000000000E+00 0.00000000000E+00 0.00000000000E+00 0.00000000000E+00
 0.00000000000E+00 0.00000000000E+00 0.00000000000E+00 0.00000000000E+00 0.00000000000E+00
 0.00000000000E+00 0.00000000000E+00 0.00000000000E+00 0.00000000000E+00 0.00000000000E+00
 0.00000000000E+00 0.00000000000E+00 0.00000000000E+00 0.00000000000E+00 0.00000000000E+00
 0.00000000000E+00 0.00000000000E+00 0.00000000000E+00 0.00000000000E+00 0.00000000000E+00
 0.00000000000E+00 0.00000000000E+00 0.00000000000E+00 0.00000000000E+00 0.00000000000E+00
 0.00000000000E+00 0.00000000000E+00 0.00000000000E+00 0.75324082687E+01 0.76837278738E+01
 0.80315921001E+01 0.84875925399E+01 0.90291456142E+01 0.96806522135E+01 0.10496642494E+02
 0.00000000000E+00 0.00000000000E+00 0.00000000000E+00 0.00000000000E+00 0.00000000000E+00
 0.00000000000E+00 0.00000000000E+00 0.00000000000E+00 0.00000000000E+00 0.00000000000E+00
 0.00000000000E+00 0.00000000000E+00 0.00000000000E+00 0.00000000000E+00 0.00000000000E+00
 0.00000000000E+00 0.00000000000E+00 0.00000000000E+00 0.00000000000E+00 0.00000000000E+00
 0.00000000000E+00 0.00000000000E+00 0.00000000000E+00 0.00000000000E+00 0.00000000000E+00
 0.00000000000E+00 0.00000000000E+00 0.00000000000E+00 0.00000000000E+00 0.00000000000E+00
 0.00000000000E+00 0.00000000000E+00 0.00000000000E+00 0.00000000000E+00 0.00000000000E+00
 0.00000000000E+00 0.00000000000E+00 0.00000000000E+00 0.00000000000E+00 0.00000000000E+00
 0.00000000000E+00 0.00000000000E+00 0.00000000000E+00 0.00000000000E+00 0.00000000000E+00
 0.00000000000E+00 0.00000000000E+00 0.00000000000E+00 0.00000000000E+00 0.00000000000E+00
 0.00000000000E+00 0.00000000000E+00 0.70404567090E+01 0.70662172578E+01 0.73077211593E+01
 0.76837278738E+01 0.81869842969E+01 0.88646701814E+01 0.00000000000E+00 0.00000000000E+00
 0.00000000000E+00 0.00000000000E+00 0.00000000000E+00 0.00000000000E+00 0.00000000000E+00
 0.00000000000E+00 0.00000000000E+00 0.00000000000E+00 0.00000000000E+00 0.00000000000E+00
 0.00000000000E+00 0.00000000000E+00 0.00000000000E+00 0.00000000000E+00 0.00000000000E+00
 0.00000000000E+00 0.00000000000E+00 0.00000000000E+00 0.00000000000E+00 0.00000000000E+00
 0.00000000000E+00 0.00000000000E+00 0.00000000000E+00 0.00000000000E+00 0.00000000000E+00
 0.00000000000E+00 0.00000000000E+00 0.00000000000E+00 0.00000000000E+00 0.00000000000E+00